<?xml version="1.0" encoding="UTF-8"?>

<!-- generated on 11/12/20 17:30:35 by Eclipse SUMO GUI Version 1.7.0
<configuration xmlns:xsi="http://www.w3.org/2001/XMLSchema-instance" xsi:noNamespaceSchemaLocation="http://sumo.dlr.de/xsd/sumoConfiguration.xsd">

    <input>
        <net-file value="intersection.net.xml"/>
        <route-files value="routes.rou.xml"/>
        <additional-files value="intersection.add.xml"/>
    </input>

    <output>
        <tripinfo-output value="tripinfo.xml"/>
    </output>

    <processing>
        <collision.mingap-factor value="0"/>
    </processing>

    <traci_server>
        <remote-port value="50240"/>
    </traci_server>

    <gui_only>
        <gui-settings-file value="intersection.settings.xml"/>
    </gui_only>

</configuration>
-->

<tripinfos xmlns:xsi="http://www.w3.org/2001/XMLSchema-instance" xsi:noNamespaceSchemaLocation="http://sumo.dlr.de/xsd/tripinfo_file.xsd">
    <tripinfo id="0" depart="0.00" departLane="3to5_0" departPos="5.10" departSpeed="0.00" departDelay="0.00" arrival="17.00" arrivalLane="5to1_1" arrivalPos="86.40" arrivalSpeed="14.57" duration="17.00" routeLength="194.90" waitingTime="0.00" waitingCount="0" stopTime="0.00" timeLoss="3.55" rerouteNo="0" devices="tripinfo_0" vType="DEFAULT_VEHTYPE" speedFactor="1.06" vaporized=""/>
    <tripinfo id="1" depart="1.00" departLane="2to5_0" departPos="5.10" departSpeed="0.00" departDelay="0.00" arrival="21.00" arrivalLane="5to1_0" arrivalPos="86.40" arrivalSpeed="12.57" duration="20.00" routeLength="176.73" waitingTime="0.00" waitingCount="0" stopTime="0.00" timeLoss="5.61" rerouteNo="0" devices="tripinfo_1" vType="DEFAULT_VEHTYPE" speedFactor="0.94" vaporized=""/>
    <tripinfo id="3" depart="3.00" departLane="4to5_0" departPos="5.10" departSpeed="0.00" departDelay="0.00" arrival="21.00" arrivalLane="5to1_2" arrivalPos="86.40" arrivalSpeed="13.99" duration="18.00" routeLength="192.21" waitingTime="0.00" waitingCount="0" stopTime="0.00" timeLoss="3.49" rerouteNo="0" devices="tripinfo_3" vType="DEFAULT_VEHTYPE" speedFactor="1.01" vaporized=""/>
    <tripinfo id="4" depart="4.00" departLane="2to5_0" departPos="5.10" departSpeed="0.00" departDelay="0.00" arrival="23.00" arrivalLane="5to1_0" arrivalPos="86.40" arrivalSpeed="14.22" duration="19.00" routeLength="176.73" waitingTime="0.00" waitingCount="0" stopTime="0.00" timeLoss="6.77" rerouteNo="0" devices="tripinfo_4" vType="DEFAULT_VEHTYPE" speedFactor="1.08" vaporized=""/>
    <tripinfo id="5" depart="5.00" departLane="1to5_0" departPos="5.10" departSpeed="0.00" departDelay="0.00" arrival="23.00" arrivalLane="5to3_1" arrivalPos="86.40" arrivalSpeed="13.74" duration="18.00" routeLength="194.90" waitingTime="0.00" waitingCount="0" stopTime="0.00" timeLoss="4.00" rerouteNo="0" devices="tripinfo_5" vType="DEFAULT_VEHTYPE" speedFactor="1.03" vaporized=""/>
    <tripinfo id="9" depart="9.00" departLane="4to5_0" departPos="5.10" departSpeed="0.00" departDelay="0.00" arrival="28.00" arrivalLane="5to1_2" arrivalPos="86.40" arrivalSpeed="13.93" duration="19.00" routeLength="192.21" waitingTime="0.00" waitingCount="0" stopTime="0.00" timeLoss="5.06" rerouteNo="0" devices="tripinfo_9" vType="DEFAULT_VEHTYPE" speedFactor="1.05" vaporized=""/>
    <tripinfo id="8" depart="8.00" departLane="1to5_0" departPos="5.10" departSpeed="0.00" departDelay="0.00" arrival="29.00" arrivalLane="5to3_1" arrivalPos="86.40" arrivalSpeed="10.73" duration="21.00" routeLength="194.90" waitingTime="0.00" waitingCount="0" stopTime="0.00" timeLoss="3.53" rerouteNo="0" devices="tripinfo_8" vType="DEFAULT_VEHTYPE" speedFactor="0.83" vaporized=""/>
    <tripinfo id="10" depart="10.00" departLane="4to5_0" departPos="5.10" departSpeed="0.00" departDelay="0.00" arrival="32.00" arrivalLane="5to3_0" arrivalPos="86.40" arrivalSpeed="11.72" duration="22.00" routeLength="176.73" waitingTime="0.00" waitingCount="0" stopTime="0.00" timeLoss="6.43" rerouteNo="0" devices="tripinfo_10" vType="DEFAULT_VEHTYPE" speedFactor="0.89" vaporized=""/>
    <tripinfo id="11" depart="11.00" departLane="2to5_0" departPos="5.10" departSpeed="0.00" departDelay="0.00" arrival="32.00" arrivalLane="5to1_0" arrivalPos="86.40" arrivalSpeed="12.59" duration="21.00" routeLength="176.73" waitingTime="0.00" waitingCount="0" stopTime="0.00" timeLoss="5.68" rerouteNo="0" devices="tripinfo_11" vType="DEFAULT_VEHTYPE" speedFactor="0.94" vaporized=""/>
    <tripinfo id="12" depart="13.00" departLane="4to5_0" departPos="5.10" departSpeed="0.00" departDelay="1.00" arrival="34.00" arrivalLane="5to2_1" arrivalPos="86.40" arrivalSpeed="11.22" duration="21.00" routeLength="194.90" waitingTime="0.00" waitingCount="0" stopTime="0.00" timeLoss="3.82" rerouteNo="0" devices="tripinfo_12" vType="DEFAULT_VEHTYPE" speedFactor="0.86" vaporized=""/>
    <tripinfo id="16" depart="16.00" departLane="3to5_0" departPos="5.10" departSpeed="0.00" departDelay="0.00" arrival="34.00" arrivalLane="5to4_2" arrivalPos="86.40" arrivalSpeed="13.34" duration="18.00" routeLength="192.21" waitingTime="0.00" waitingCount="0" stopTime="0.00" timeLoss="4.16" rerouteNo="0" devices="tripinfo_16" vType="DEFAULT_VEHTYPE" speedFactor="1.05" vaporized=""/>
    <tripinfo id="17" depart="17.00" departLane="2to5_0" departPos="5.10" departSpeed="0.00" departDelay="0.00" arrival="34.00" arrivalLane="5to3_2" arrivalPos="86.40" arrivalSpeed="14.44" duration="17.00" routeLength="192.21" waitingTime="0.00" waitingCount="0" stopTime="0.00" timeLoss="4.15" rerouteNo="0" devices="tripinfo_17" vType="DEFAULT_VEHTYPE" speedFactor="1.12" vaporized=""/>
    <tripinfo id="14" depart="16.00" departLane="4to5_0" departPos="5.10" departSpeed="0.00" departDelay="2.00" arrival="35.00" arrivalLane="5to3_0" arrivalPos="86.40" arrivalSpeed="13.98" duration="19.00" routeLength="176.73" waitingTime="0.00" waitingCount="0" stopTime="0.00" timeLoss="6.72" rerouteNo="0" devices="tripinfo_14" vType="DEFAULT_VEHTYPE" speedFactor="1.09" vaporized=""/>
    <tripinfo id="15" depart="19.00" departLane="4to5_0" departPos="5.10" departSpeed="0.00" departDelay="4.00" arrival="39.00" arrivalLane="5to3_0" arrivalPos="86.40" arrivalSpeed="13.90" duration="20.00" routeLength="176.73" waitingTime="0.00" waitingCount="0" stopTime="0.00" timeLoss="6.42" rerouteNo="0" devices="tripinfo_15" vType="DEFAULT_VEHTYPE" speedFactor="1.03" vaporized=""/>
    <tripinfo id="20" depart="20.00" departLane="3to5_0" departPos="5.10" departSpeed="0.00" departDelay="0.00" arrival="40.00" arrivalLane="5to1_1" arrivalPos="86.40" arrivalSpeed="11.79" duration="20.00" routeLength="194.90" waitingTime="0.00" waitingCount="0" stopTime="0.00" timeLoss="3.45" rerouteNo="0" devices="tripinfo_20" vType="DEFAULT_VEHTYPE" speedFactor="0.88" vaporized=""/>
    <tripinfo id="21" depart="21.00" departLane="1to5_0" departPos="5.10" departSpeed="0.00" departDelay="0.00" arrival="41.00" arrivalLane="5to2_2" arrivalPos="86.40" arrivalSpeed="13.06" duration="20.00" routeLength="192.21" waitingTime="0.00" waitingCount="0" stopTime="0.00" timeLoss="4.03" rerouteNo="0" devices="tripinfo_21" vType="DEFAULT_VEHTYPE" speedFactor="0.94" vaporized=""/>
    <tripinfo id="18" depart="22.00" departLane="4to5_0" departPos="5.10" departSpeed="0.00" departDelay="4.00" arrival="43.00" arrivalLane="5to3_0" arrivalPos="86.40" arrivalSpeed="12.98" duration="21.00" routeLength="176.73" waitingTime="0.00" waitingCount="0" stopTime="0.00" timeLoss="6.36" rerouteNo="0" devices="tripinfo_18" vType="DEFAULT_VEHTYPE" speedFactor="0.99" vaporized=""/>
    <tripinfo id="23" depart="23.00" departLane="1to5_0" departPos="5.10" departSpeed="0.00" departDelay="0.00" arrival="43.00" arrivalLane="5to2_2" arrivalPos="86.40" arrivalSpeed="11.80" duration="20.00" routeLength="192.21" waitingTime="0.00" waitingCount="0" stopTime="0.00" timeLoss="4.24" rerouteNo="0" devices="tripinfo_23" vType="DEFAULT_VEHTYPE" speedFactor="0.94" vaporized=""/>
    <tripinfo id="24" depart="24.00" departLane="3to5_0" departPos="5.10" departSpeed="0.00" departDelay="0.00" arrival="43.00" arrivalLane="5to2_0" arrivalPos="86.40" arrivalSpeed="14.99" duration="19.00" routeLength="176.73" waitingTime="0.00" waitingCount="0" stopTime="0.00" timeLoss="6.77" rerouteNo="0" devices="tripinfo_24" vType="DEFAULT_VEHTYPE" speedFactor="1.16" vaporized=""/>
    <tripinfo id="25" depart="25.00" departLane="2to5_0" departPos="5.10" departSpeed="0.00" departDelay="0.00" arrival="44.00" arrivalLane="5to1_0" arrivalPos="86.40" arrivalSpeed="14.08" duration="19.00" routeLength="176.73" waitingTime="0.00" waitingCount="0" stopTime="0.00" timeLoss="5.38" rerouteNo="0" devices="tripinfo_25" vType="DEFAULT_VEHTYPE" speedFactor="1.02" vaporized=""/>
    <tripinfo id="19" depart="25.00" departLane="4to5_0" departPos="5.10" departSpeed="0.00" departDelay="6.00" arrival="46.00" arrivalLane="5to3_0" arrivalPos="86.40" arrivalSpeed="12.13" duration="21.00" routeLength="176.73" waitingTime="0.00" waitingCount="0" stopTime="0.00" timeLoss="6.43" rerouteNo="0" devices="tripinfo_19" vType="DEFAULT_VEHTYPE" speedFactor="0.93" vaporized=""/>
    <tripinfo id="26" depart="28.00" departLane="2to5_0" departPos="5.10" departSpeed="0.00" departDelay="2.00" arrival="46.00" arrivalLane="5to4_1" arrivalPos="86.40" arrivalSpeed="13.73" duration="18.00" routeLength="194.90" waitingTime="0.00" waitingCount="0" stopTime="0.00" timeLoss="3.60" rerouteNo="0" devices="tripinfo_26" vType="DEFAULT_VEHTYPE" speedFactor="1.01" vaporized=""/>
    <tripinfo id="28" depart="28.00" departLane="1to5_0" departPos="5.10" departSpeed="0.00" departDelay="0.00" arrival="48.00" arrivalLane="5to3_1" arrivalPos="86.40" arrivalSpeed="13.14" duration="20.00" routeLength="194.90" waitingTime="0.00" waitingCount="0" stopTime="0.00" timeLoss="4.75" rerouteNo="0" devices="tripinfo_28" vType="DEFAULT_VEHTYPE" speedFactor="0.98" vaporized=""/>
    <tripinfo id="29" depart="30.00" departLane="1to5_0" departPos="5.10" departSpeed="0.00" departDelay="1.00" arrival="50.00" arrivalLane="5to2_2" arrivalPos="86.40" arrivalSpeed="11.22" duration="20.00" routeLength="192.21" waitingTime="0.00" waitingCount="0" stopTime="0.00" timeLoss="3.63" rerouteNo="0" devices="tripinfo_29" vType="DEFAULT_VEHTYPE" speedFactor="0.89" vaporized=""/>
    <tripinfo id="30" depart="30.00" departLane="4to5_0" departPos="5.10" departSpeed="0.00" departDelay="0.00" arrival="52.00" arrivalLane="5to3_0" arrivalPos="86.40" arrivalSpeed="11.30" duration="22.00" routeLength="176.73" waitingTime="0.00" waitingCount="0" stopTime="0.00" timeLoss="4.99" rerouteNo="0" devices="tripinfo_30" vType="DEFAULT_VEHTYPE" speedFactor="0.83" vaporized=""/>
    <tripinfo id="36" depart="36.00" departLane="4to5_0" departPos="5.10" departSpeed="0.00" departDelay="0.00" arrival="55.00" arrivalLane="5to2_1" arrivalPos="86.40" arrivalSpeed="12.37" duration="19.00" routeLength="194.90" waitingTime="0.00" waitingCount="0" stopTime="0.00" timeLoss="2.92" rerouteNo="0" devices="tripinfo_36" vType="DEFAULT_VEHTYPE" speedFactor="0.92" vaporized=""/>
    <tripinfo id="35" depart="35.00" departLane="1to5_0" departPos="5.10" departSpeed="0.00" departDelay="0.00" arrival="56.00" arrivalLane="5to4_0" arrivalPos="86.40" arrivalSpeed="11.62" duration="21.00" routeLength="176.73" waitingTime="0.00" waitingCount="0" stopTime="0.00" timeLoss="5.18" rerouteNo="0" devices="tripinfo_35" vType="DEFAULT_VEHTYPE" speedFactor="0.87" vaporized=""/>
    <tripinfo id="38" depart="38.00" departLane="4to5_0" departPos="5.10" departSpeed="0.00" departDelay="0.00" arrival="56.00" arrivalLane="5to2_1" arrivalPos="86.40" arrivalSpeed="14.45" duration="18.00" routeLength="194.90" waitingTime="0.00" waitingCount="0" stopTime="0.00" timeLoss="5.44" rerouteNo="0" devices="tripinfo_38" vType="DEFAULT_VEHTYPE" speedFactor="1.13" vaporized=""/>
    <tripinfo id="37" depart="37.00" departLane="3to5_0" departPos="5.10" departSpeed="0.00" departDelay="0.00" arrival="57.00" arrivalLane="5to2_0" arrivalPos="86.40" arrivalSpeed="12.65" duration="20.00" routeLength="176.73" waitingTime="0.00" waitingCount="0" stopTime="0.00" timeLoss="5.71" rerouteNo="0" devices="tripinfo_37" vType="DEFAULT_VEHTYPE" speedFactor="0.95" vaporized=""/>
    <tripinfo id="39" depart="39.00" departLane="2to5_0" departPos="5.10" departSpeed="0.00" departDelay="0.00" arrival="59.00" arrivalLane="5to1_0" arrivalPos="86.40" arrivalSpeed="12.63" duration="20.00" routeLength="176.73" waitingTime="0.00" waitingCount="0" stopTime="0.00" timeLoss="5.54" rerouteNo="0" devices="tripinfo_39" vType="DEFAULT_VEHTYPE" speedFactor="0.93" vaporized=""/>
    <tripinfo id="40" depart="40.00" departLane="3to5_0" departPos="5.10" departSpeed="0.00" departDelay="0.00" arrival="59.00" arrivalLane="5to2_0" arrivalPos="86.40" arrivalSpeed="16.21" duration="19.00" routeLength="176.73" waitingTime="0.00" waitingCount="0" stopTime="0.00" timeLoss="7.28" rerouteNo="0" devices="tripinfo_40" vType="DEFAULT_VEHTYPE" speedFactor="1.18" vaporized=""/>
    <tripinfo id="41" depart="43.00" departLane="3to5_0" departPos="5.10" departSpeed="0.00" departDelay="2.00" arrival="61.00" arrivalLane="5to4_2" arrivalPos="86.40" arrivalSpeed="15.81" duration="18.00" routeLength="192.21" waitingTime="0.00" waitingCount="0" stopTime="0.00" timeLoss="4.67" rerouteNo="0" devices="tripinfo_41" vType="DEFAULT_VEHTYPE" speedFactor="1.15" vaporized=""/>
    <tripinfo id="42" depart="42.00" departLane="2to5_0" departPos="5.10" departSpeed="0.00" departDelay="0.00" arrival="61.00" arrivalLane="5to1_0" arrivalPos="86.40" arrivalSpeed="13.60" duration="19.00" routeLength="176.73" waitingTime="0.00" waitingCount="0" stopTime="0.00" timeLoss="5.77" rerouteNo="0" devices="tripinfo_42" vType="DEFAULT_VEHTYPE" speedFactor="1.01" vaporized=""/>
    <tripinfo id="43" depart="43.00" departLane="4to5_0" departPos="5.10" departSpeed="0.00" departDelay="0.00" arrival="62.00" arrivalLane="5to3_0" arrivalPos="86.40" arrivalSpeed="15.05" duration="19.00" routeLength="176.73" waitingTime="0.00" waitingCount="0" stopTime="0.00" timeLoss="7.07" rerouteNo="0" devices="tripinfo_43" vType="DEFAULT_VEHTYPE" speedFactor="1.17" vaporized=""/>
    <tripinfo id="45" depart="45.00" departLane="1to5_0" departPos="5.10" departSpeed="0.00" departDelay="0.00" arrival="63.00" arrivalLane="5to3_1" arrivalPos="86.40" arrivalSpeed="13.36" duration="18.00" routeLength="194.90" waitingTime="0.00" waitingCount="0" stopTime="0.00" timeLoss="3.72" rerouteNo="0" devices="tripinfo_45" vType="DEFAULT_VEHTYPE" speedFactor="0.99" vaporized=""/>
    <tripinfo id="46" depart="46.00" departLane="4to5_0" departPos="5.10" departSpeed="0.00" departDelay="0.00" arrival="65.00" arrivalLane="5to2_1" arrivalPos="86.40" arrivalSpeed="13.67" duration="19.00" routeLength="194.90" waitingTime="0.00" waitingCount="0" stopTime="0.00" timeLoss="4.92" rerouteNo="0" devices="tripinfo_46" vType="DEFAULT_VEHTYPE" speedFactor="1.02" vaporized=""/>
    <tripinfo id="48" depart="48.00" departLane="4to5_0" departPos="5.10" departSpeed="0.00" departDelay="0.00" arrival="66.00" arrivalLane="5to3_0" arrivalPos="86.40" arrivalSpeed="15.10" duration="18.00" routeLength="176.73" waitingTime="0.00" waitingCount="0" stopTime="0.00" timeLoss="6.81" rerouteNo="0" devices="tripinfo_48" vType="DEFAULT_VEHTYPE" speedFactor="1.18" vaporized=""/>
    <tripinfo id="50" depart="50.00" departLane="1to5_0" departPos="5.10" departSpeed="0.00" departDelay="0.00" arrival="66.00" arrivalLane="5to3_1" arrivalPos="86.40" arrivalSpeed="14.98" duration="16.00" routeLength="194.90" waitingTime="0.00" waitingCount="0" stopTime="0.00" timeLoss="3.18" rerouteNo="0" devices="tripinfo_50" vType="DEFAULT_VEHTYPE" speedFactor="1.10" vaporized=""/>
    <tripinfo id="47" depart="47.00" departLane="1to5_0" departPos="5.10" departSpeed="0.00" departDelay="0.00" arrival="67.00" arrivalLane="5to2_2" arrivalPos="86.40" arrivalSpeed="12.83" duration="20.00" routeLength="192.21" waitingTime="0.00" waitingCount="0" stopTime="0.00" timeLoss="5.06" rerouteNo="0" devices="tripinfo_47" vType="DEFAULT_VEHTYPE" speedFactor="0.97" vaporized=""/>
    <tripinfo id="52" depart="52.00" departLane="2to5_0" departPos="5.10" departSpeed="0.00" departDelay="0.00" arrival="72.00" arrivalLane="5to3_2" arrivalPos="86.40" arrivalSpeed="12.18" duration="20.00" routeLength="192.21" waitingTime="0.00" waitingCount="0" stopTime="0.00" timeLoss="3.39" rerouteNo="0" devices="tripinfo_52" vType="DEFAULT_VEHTYPE" speedFactor="0.90" vaporized=""/>
    <tripinfo id="53" depart="53.00" departLane="1to5_0" departPos="5.10" departSpeed="0.00" departDelay="0.00" arrival="72.00" arrivalLane="5to2_2" arrivalPos="86.40" arrivalSpeed="13.47" duration="19.00" routeLength="192.21" waitingTime="0.00" waitingCount="0" stopTime="0.00" timeLoss="4.45" rerouteNo="0" devices="tripinfo_53" vType="DEFAULT_VEHTYPE" speedFactor="1.03" vaporized=""/>
    <tripinfo id="55" depart="55.00" departLane="4to5_0" departPos="5.10" departSpeed="0.00" departDelay="0.00" arrival="72.00" arrivalLane="5to2_1" arrivalPos="86.40" arrivalSpeed="14.84" duration="17.00" routeLength="194.90" waitingTime="0.00" waitingCount="0" stopTime="0.00" timeLoss="4.13" rerouteNo="0" devices="tripinfo_55" vType="DEFAULT_VEHTYPE" speedFactor="1.09" vaporized=""/>
    <tripinfo id="54" depart="54.00" departLane="2to5_0" departPos="5.10" departSpeed="0.00" departDelay="0.00" arrival="73.00" arrivalLane="5to4_1" arrivalPos="86.40" arrivalSpeed="13.16" duration="19.00" routeLength="194.90" waitingTime="0.00" waitingCount="0" stopTime="0.00" timeLoss="4.14" rerouteNo="0" devices="tripinfo_54" vType="DEFAULT_VEHTYPE" speedFactor="0.96" vaporized=""/>
    <tripinfo id="56" depart="56.00" departLane="3to5_0" departPos="5.10" departSpeed="0.00" departDelay="0.00" arrival="76.00" arrivalLane="5to1_1" arrivalPos="86.40" arrivalSpeed="14.10" duration="20.00" routeLength="194.90" waitingTime="0.00" waitingCount="0" stopTime="0.00" timeLoss="5.60" rerouteNo="0" devices="tripinfo_56" vType="DEFAULT_VEHTYPE" speedFactor="1.04" vaporized=""/>
    <tripinfo id="58" depart="58.00" departLane="2to5_0" departPos="5.10" departSpeed="0.00" departDelay="0.00" arrival="78.00" arrivalLane="5to3_2" arrivalPos="86.40" arrivalSpeed="13.95" duration="20.00" routeLength="192.21" waitingTime="0.00" waitingCount="0" stopTime="0.00" timeLoss="5.36" rerouteNo="0" devices="tripinfo_58" vType="DEFAULT_VEHTYPE" speedFactor="1.04" vaporized=""/>
    <tripinfo id="59" depart="59.00" departLane="3to5_0" departPos="5.10" departSpeed="0.00" departDelay="0.00" arrival="80.00" arrivalLane="5to1_1" arrivalPos="86.40" arrivalSpeed="15.02" duration="21.00" routeLength="194.90" waitingTime="0.00" waitingCount="0" stopTime="0.00" timeLoss="7.23" rerouteNo="0" devices="tripinfo_59" vType="DEFAULT_VEHTYPE" speedFactor="1.09" vaporized=""/>
    <tripinfo id="60" depart="60.00" departLane="4to5_0" departPos="5.10" departSpeed="0.00" departDelay="0.00" arrival="81.00" arrivalLane="5to3_0" arrivalPos="86.40" arrivalSpeed="13.64" duration="21.00" routeLength="176.73" waitingTime="0.00" waitingCount="0" stopTime="0.00" timeLoss="6.59" rerouteNo="0" devices="tripinfo_60" vType="DEFAULT_VEHTYPE" speedFactor="1.00" vaporized=""/>
    <tripinfo id="62" depart="62.00" departLane="1to5_0" departPos="5.10" departSpeed="0.00" departDelay="0.00" arrival="83.00" arrivalLane="5to2_2" arrivalPos="86.40" arrivalSpeed="12.05" duration="21.00" routeLength="192.21" waitingTime="0.00" waitingCount="0" stopTime="0.00" timeLoss="4.10" rerouteNo="0" devices="tripinfo_62" vType="DEFAULT_VEHTYPE" speedFactor="0.88" vaporized=""/>
    <tripinfo id="61" depart="63.00" departLane="4to5_0" departPos="5.10" departSpeed="0.00" departDelay="2.00" arrival="84.00" arrivalLane="5to3_0" arrivalPos="86.40" arrivalSpeed="11.94" duration="21.00" routeLength="176.73" waitingTime="0.00" waitingCount="0" stopTime="0.00" timeLoss="5.54" rerouteNo="0" devices="tripinfo_61" vType="DEFAULT_VEHTYPE" speedFactor="0.90" vaporized=""/>
    <tripinfo id="63" depart="63.00" departLane="1to5_0" departPos="5.10" departSpeed="0.00" departDelay="0.00" arrival="84.00" arrivalLane="5to4_0" arrivalPos="86.40" arrivalSpeed="10.98" duration="21.00" routeLength="176.73" waitingTime="0.00" waitingCount="0" stopTime="0.00" timeLoss="5.04" rerouteNo="0" devices="tripinfo_63" vType="DEFAULT_VEHTYPE" speedFactor="0.85" vaporized=""/>
    <tripinfo id="67" depart="67.00" departLane="1to5_0" departPos="5.10" departSpeed="0.00" departDelay="0.00" arrival="84.00" arrivalLane="5to2_2" arrivalPos="86.40" arrivalSpeed="15.36" duration="17.00" routeLength="192.21" waitingTime="0.00" waitingCount="0" stopTime="0.00" timeLoss="4.64" rerouteNo="0" devices="tripinfo_67" vType="DEFAULT_VEHTYPE" speedFactor="1.17" vaporized=""/>
    <tripinfo id="65" depart="65.00" departLane="2to5_0" departPos="5.10" departSpeed="0.00" departDelay="0.00" arrival="87.00" arrivalLane="5to1_0" arrivalPos="86.40" arrivalSpeed="11.58" duration="22.00" routeLength="176.73" waitingTime="0.00" waitingCount="0" stopTime="0.00" timeLoss="5.30" rerouteNo="0" devices="tripinfo_65" vType="DEFAULT_VEHTYPE" speedFactor="0.85" vaporized=""/>
    <tripinfo id="69" depart="69.00" departLane="4to5_0" departPos="5.10" departSpeed="0.00" departDelay="0.00" arrival="87.00" arrivalLane="5to1_2" arrivalPos="86.40" arrivalSpeed="14.09" duration="18.00" routeLength="192.21" waitingTime="0.00" waitingCount="0" stopTime="0.00" timeLoss="4.08" rerouteNo="0" devices="tripinfo_69" vType="DEFAULT_VEHTYPE" speedFactor="1.10" vaporized=""/>
    <tripinfo id="68" depart="68.00" departLane="1to5_0" departPos="5.10" departSpeed="0.00" departDelay="0.00" arrival="88.00" arrivalLane="5to4_0" arrivalPos="86.40" arrivalSpeed="13.27" duration="20.00" routeLength="176.73" waitingTime="0.00" waitingCount="0" stopTime="0.00" timeLoss="5.67" rerouteNo="0" devices="tripinfo_68" vType="DEFAULT_VEHTYPE" speedFactor="1.02" vaporized=""/>
    <tripinfo id="70" depart="70.00" departLane="2to5_0" departPos="5.10" departSpeed="0.00" departDelay="0.00" arrival="89.00" arrivalLane="5to3_2" arrivalPos="86.40" arrivalSpeed="12.97" duration="19.00" routeLength="192.21" waitingTime="0.00" waitingCount="0" stopTime="0.00" timeLoss="4.10" rerouteNo="0" devices="tripinfo_70" vType="DEFAULT_VEHTYPE" speedFactor="1.00" vaporized=""/>
    <tripinfo id="71" depart="71.00" departLane="2to5_0" departPos="5.10" departSpeed="0.00" departDelay="0.00" arrival="89.00" arrivalLane="5to4_1" arrivalPos="86.40" arrivalSpeed="13.19" duration="18.00" routeLength="194.90" waitingTime="0.00" waitingCount="0" stopTime="0.00" timeLoss="3.69" rerouteNo="0" devices="tripinfo_71" vType="DEFAULT_VEHTYPE" speedFactor="1.00" vaporized=""/>
    <tripinfo id="74" depart="74.00" departLane="1to5_0" departPos="5.10" departSpeed="0.00" departDelay="0.00" arrival="92.00" arrivalLane="5to2_2" arrivalPos="86.40" arrivalSpeed="15.06" duration="18.00" routeLength="192.21" waitingTime="0.00" waitingCount="0" stopTime="0.00" timeLoss="4.71" rerouteNo="0" devices="tripinfo_74" vType="DEFAULT_VEHTYPE" speedFactor="1.14" vaporized=""/>
    <tripinfo id="72" depart="73.00" departLane="2to5_0" departPos="5.10" departSpeed="0.00" departDelay="1.00" arrival="94.00" arrivalLane="5to1_0" arrivalPos="86.40" arrivalSpeed="11.41" duration="21.00" routeLength="176.73" waitingTime="0.00" waitingCount="0" stopTime="0.00" timeLoss="5.62" rerouteNo="0" devices="tripinfo_72" vType="DEFAULT_VEHTYPE" speedFactor="0.90" vaporized=""/>
    <tripinfo id="75" depart="75.00" departLane="4to5_0" departPos="5.10" departSpeed="0.00" departDelay="0.00" arrival="95.00" arrivalLane="5to3_0" arrivalPos="86.40" arrivalSpeed="14.20" duration="20.00" routeLength="176.73" waitingTime="0.00" waitingCount="0" stopTime="0.00" timeLoss="6.21" rerouteNo="0" devices="tripinfo_75" vType="DEFAULT_VEHTYPE" speedFactor="1.02" vaporized=""/>
    <tripinfo id="76" depart="76.00" departLane="2to5_0" departPos="5.10" departSpeed="0.00" departDelay="0.00" arrival="96.00" arrivalLane="5to3_2" arrivalPos="86.40" arrivalSpeed="13.10" duration="20.00" routeLength="192.21" waitingTime="0.00" waitingCount="0" stopTime="0.00" timeLoss="4.38" rerouteNo="0" devices="tripinfo_76" vType="DEFAULT_VEHTYPE" speedFactor="0.97" vaporized=""/>
    <tripinfo id="80" depart="80.00" departLane="1to5_0" departPos="5.10" departSpeed="0.00" departDelay="0.00" arrival="97.00" arrivalLane="5to3_1" arrivalPos="86.40" arrivalSpeed="14.77" duration="17.00" routeLength="194.90" waitingTime="0.00" waitingCount="0" stopTime="0.00" timeLoss="4.10" rerouteNo="0" devices="tripinfo_80" vType="DEFAULT_VEHTYPE" speedFactor="1.12" vaporized=""/>
    <tripinfo id="78" depart="78.00" departLane="2to5_0" departPos="5.10" departSpeed="0.00" departDelay="0.00" arrival="98.00" arrivalLane="5to3_2" arrivalPos="86.40" arrivalSpeed="14.70" duration="20.00" routeLength="192.21" waitingTime="0.00" waitingCount="0" stopTime="0.00" timeLoss="5.63" rerouteNo="0" devices="tripinfo_78" vType="DEFAULT_VEHTYPE" speedFactor="1.08" vaporized=""/>
    <tripinfo id="81" depart="82.00" departLane="1to5_0" departPos="5.10" departSpeed="0.00" departDelay="1.00" arrival="101.00" arrivalLane="5to4_0" arrivalPos="86.40" arrivalSpeed="13.13" duration="19.00" routeLength="176.73" waitingTime="0.00" waitingCount="0" stopTime="0.00" timeLoss="5.17" rerouteNo="0" devices="tripinfo_81" vType="DEFAULT_VEHTYPE" speedFactor="1.02" vaporized=""/>
    <tripinfo id="82" depart="82.00" departLane="4to5_0" departPos="5.10" departSpeed="0.00" departDelay="0.00" arrival="101.00" arrivalLane="5to1_2" arrivalPos="86.40" arrivalSpeed="12.66" duration="19.00" routeLength="192.21" waitingTime="0.00" waitingCount="0" stopTime="0.00" timeLoss="3.74" rerouteNo="0" devices="tripinfo_82" vType="DEFAULT_VEHTYPE" speedFactor="0.99" vaporized=""/>
    <tripinfo id="83" depart="85.00" departLane="1to5_0" departPos="5.10" departSpeed="0.00" departDelay="2.00" arrival="104.00" arrivalLane="5to3_1" arrivalPos="86.40" arrivalSpeed="12.78" duration="19.00" routeLength="194.90" waitingTime="0.00" waitingCount="0" stopTime="0.00" timeLoss="3.71" rerouteNo="0" devices="tripinfo_83" vType="DEFAULT_VEHTYPE" speedFactor="0.94" vaporized=""/>
    <tripinfo id="85" depart="85.00" departLane="4to5_0" departPos="5.10" departSpeed="0.00" departDelay="0.00" arrival="106.00" arrivalLane="5to3_0" arrivalPos="86.40" arrivalSpeed="11.68" duration="21.00" routeLength="176.73" waitingTime="0.00" waitingCount="0" stopTime="0.00" timeLoss="5.29" rerouteNo="0" devices="tripinfo_85" vType="DEFAULT_VEHTYPE" speedFactor="0.88" vaporized=""/>
    <tripinfo id="86" depart="86.00" departLane="2to5_0" departPos="5.10" departSpeed="0.00" departDelay="0.00" arrival="106.00" arrivalLane="5to4_1" arrivalPos="86.40" arrivalSpeed="11.89" duration="20.00" routeLength="194.90" waitingTime="0.00" waitingCount="0" stopTime="0.00" timeLoss="3.65" rerouteNo="0" devices="tripinfo_86" vType="DEFAULT_VEHTYPE" speedFactor="0.91" vaporized=""/>
    <tripinfo id="88" depart="88.00" departLane="1to5_0" departPos="5.10" departSpeed="0.00" departDelay="0.00" arrival="107.00" arrivalLane="5to2_2" arrivalPos="86.40" arrivalSpeed="14.28" duration="19.00" routeLength="192.21" waitingTime="0.00" waitingCount="0" stopTime="0.00" timeLoss="4.45" rerouteNo="0" devices="tripinfo_88" vType="DEFAULT_VEHTYPE" speedFactor="1.04" vaporized=""/>
    <tripinfo id="87" depart="88.00" departLane="4to5_0" departPos="5.10" departSpeed="0.00" departDelay="1.00" arrival="109.00" arrivalLane="5to1_2" arrivalPos="86.40" arrivalSpeed="11.47" duration="21.00" routeLength="192.21" waitingTime="0.00" waitingCount="0" stopTime="0.00" timeLoss="4.33" rerouteNo="0" devices="tripinfo_87" vType="DEFAULT_VEHTYPE" speedFactor="0.91" vaporized=""/>
    <tripinfo id="91" depart="91.00" departLane="4to5_0" departPos="5.10" departSpeed="0.00" departDelay="0.00" arrival="110.00" arrivalLane="5to1_2" arrivalPos="86.40" arrivalSpeed="13.70" duration="19.00" routeLength="192.21" waitingTime="0.00" waitingCount="0" stopTime="0.00" timeLoss="4.79" rerouteNo="0" devices="tripinfo_91" vType="DEFAULT_VEHTYPE" speedFactor="1.02" vaporized=""/>
    <tripinfo id="93" depart="93.00" departLane="4to5_0" departPos="5.10" departSpeed="0.00" departDelay="0.00" arrival="112.00" arrivalLane="5to1_2" arrivalPos="86.40" arrivalSpeed="13.54" duration="19.00" routeLength="192.21" waitingTime="0.00" waitingCount="0" stopTime="0.00" timeLoss="4.49" rerouteNo="0" devices="tripinfo_93" vType="DEFAULT_VEHTYPE" speedFactor="1.02" vaporized=""/>
    <tripinfo id="94" depart="94.00" departLane="1to5_0" departPos="5.10" departSpeed="0.00" departDelay="0.00" arrival="116.00" arrivalLane="5to2_2" arrivalPos="86.40" arrivalSpeed="13.13" duration="22.00" routeLength="192.21" waitingTime="0.00" waitingCount="0" stopTime="0.00" timeLoss="6.18" rerouteNo="0" devices="tripinfo_94" vType="DEFAULT_VEHTYPE" speedFactor="0.97" vaporized=""/>
    <tripinfo id="96" depart="96.00" departLane="1to5_0" departPos="5.10" departSpeed="0.00" departDelay="0.00" arrival="116.00" arrivalLane="5to4_0" arrivalPos="86.40" arrivalSpeed="12.88" duration="20.00" routeLength="176.73" waitingTime="0.00" waitingCount="0" stopTime="0.00" timeLoss="5.84" rerouteNo="0" devices="tripinfo_96" vType="DEFAULT_VEHTYPE" speedFactor="0.94" vaporized=""/>
    <tripinfo id="97" depart="97.00" departLane="2to5_0" departPos="5.10" departSpeed="0.00" departDelay="0.00" arrival="117.00" arrivalLane="5to4_1" arrivalPos="86.40" arrivalSpeed="13.46" duration="20.00" routeLength="194.90" waitingTime="0.00" waitingCount="0" stopTime="0.00" timeLoss="6.60" rerouteNo="0" devices="tripinfo_97" vType="DEFAULT_VEHTYPE" speedFactor="1.06" vaporized=""/>