<?xml version="1.0" encoding="UTF-8"?>

<!-- generated on gio 17 dic 2020, 17:41:31 by Eclipse SUMO GUI Version 1.8.0
<configuration xmlns:xsi="http://www.w3.org/2001/XMLSchema-instance" xsi:noNamespaceSchemaLocation="http://sumo.dlr.de/xsd/sumoConfiguration.xsd">

    <input>
        <net-file value="intersection.net.xml"/>
        <route-files value="routes.rou.xml"/>
        <additional-files value="intersection.add.xml"/>
    </input>

    <output>
        <tripinfo-output value="tripinfo.xml"/>
    </output>

    <traci_server>
        <remote-port value="54963"/>
    </traci_server>

    <gui_only>
        <gui-settings-file value="intersection.settings.xml"/>
    </gui_only>

</configuration>
-->

<detector xmlns:xsi="http://www.w3.org/2001/XMLSchema-instance" xsi:noNamespaceSchemaLocation="http://sumo.dlr.de/xsd/det_e1_file.xsd">
    <interval begin="0.00" end="145.00" id="0" nVehContrib="9" flow="223.45" occupancy="5.73" speed="5.56" harmonicMeanSpeed="5.41" length="5.00" nVehEntered="9"/>
    <interval begin="0.00" end="145.00" id="1" nVehContrib="9" flow="223.45" occupancy="5.54" speed="5.67" harmonicMeanSpeed="5.60" length="5.00" nVehEntered="9"/>
    <interval begin="0.00" end="145.00" id="2" nVehContrib="5" flow="124.14" occupancy="4.70" speed="4.58" harmonicMeanSpeed="4.15" length="5.00" nVehEntered="6"/>
    <interval begin="0.00" end="145.00" id="3" nVehContrib="5" flow="124.14" occupancy="3.08" speed="5.62" harmonicMeanSpeed="5.59" length="5.00" nVehEntered="5"/>
</detector>
