<?xml version="1.0" encoding="UTF-8"?>

<!-- generated on 11/05/20 16:36:03 by Eclipse SUMO GUI Version 1.7.0
<configuration xmlns:xsi="http://www.w3.org/2001/XMLSchema-instance" xsi:noNamespaceSchemaLocation="http://sumo.dlr.de/xsd/sumoConfiguration.xsd">

    <input>
        <net-file value="intersection.net.xml"/>
        <route-files value="routes.rou.xml"/>
        <additional-files value="intersection.add.xml"/>
    </input>

    <output>
        <tripinfo-output value="tripinfo.xml"/>
    </output>

    <traci_server>
        <remote-port value="61209"/>
    </traci_server>

    <gui_only>
        <gui-settings-file value="intersection.settings.xml"/>
    </gui_only>

</configuration>
-->

<detector xmlns:xsi="http://www.w3.org/2001/XMLSchema-instance" xsi:noNamespaceSchemaLocation="http://sumo.dlr.de/xsd/det_e1_file.xsd">
    <interval begin="0.00" end="140.00" id="0" nVehContrib="5" flow="128.57" occupancy="1.40" speed="12.83" harmonicMeanSpeed="12.80" length="5.00" nVehEntered="5"/>
    <interval begin="0.00" end="140.00" id="1" nVehContrib="6" flow="154.29" occupancy="1.62" speed="13.27" harmonicMeanSpeed="13.19" length="5.00" nVehEntered="6"/>
    <interval begin="0.00" end="140.00" id="16" nVehContrib="5" flow="128.57" occupancy="1.37" speed="13.04" harmonicMeanSpeed="12.99" length="5.00" nVehEntered="5"/>
    <interval begin="0.00" end="140.00" id="17" nVehContrib="6" flow="154.29" occupancy="2.48" speed="8.64" harmonicMeanSpeed="8.63" length="5.00" nVehEntered="6"/>
    <interval begin="0.00" end="140.00" id="18" nVehContrib="5" flow="128.57" occupancy="4.62" speed="4.78" harmonicMeanSpeed="3.86" length="5.00" nVehEntered="5"/>
    <interval begin="0.00" end="140.00" id="19" nVehContrib="2" flow="51.43" occupancy="2.54" speed="2.81" harmonicMeanSpeed="2.81" length="5.00" nVehEntered="2"/>
    <interval begin="0.00" end="140.00" id="2" nVehContrib="5" flow="128.57" occupancy="1.51" speed="11.87" harmonicMeanSpeed="11.79" length="5.00" nVehEntered="5"/>
    <interval begin="0.00" end="140.00" id="20" nVehContrib="5" flow="128.57" occupancy="1.39" speed="12.88" harmonicMeanSpeed="12.81" length="5.00" nVehEntered="5"/>
    <interval begin="0.00" end="140.00" id="21" nVehContrib="7" flow="180.00" occupancy="5.03" speed="6.55" harmonicMeanSpeed="4.97" length="5.00" nVehEntered="7"/>
    <interval begin="0.00" end="140.00" id="22" nVehContrib="7" flow="180.00" occupancy="5.96" speed="4.98" harmonicMeanSpeed="4.20" length="5.00" nVehEntered="7"/>
    <interval begin="0.00" end="140.00" id="23" nVehContrib="10" flow="257.14" occupancy="7.24" speed="5.93" harmonicMeanSpeed="4.94" length="5.00" nVehEntered="10"/>
    <interval begin="0.00" end="140.00" id="3" nVehContrib="2" flow="51.43" occupancy="0.54" speed="13.33" harmonicMeanSpeed="13.31" length="5.00" nVehEntered="2"/>
    <interval begin="0.00" end="140.00" id="4" nVehContrib="5" flow="128.57" occupancy="1.40" speed="12.86" harmonicMeanSpeed="12.72" length="5.00" nVehEntered="5"/>
    <interval begin="0.00" end="140.00" id="5" nVehContrib="7" flow="180.00" occupancy="1.90" speed="13.25" harmonicMeanSpeed="13.17" length="5.00" nVehEntered="7"/>
    <interval begin="0.00" end="140.00" id="6" nVehContrib="7" flow="180.00" occupancy="2.02" speed="12.42" harmonicMeanSpeed="12.39" length="5.00" nVehEntered="7"/>
    <interval begin="0.00" end="140.00" id="7" nVehContrib="10" flow="257.14" occupancy="33.48" speed="7.78" harmonicMeanSpeed="1.07" length="5.00" nVehEntered="10"/>
</detector>
