<?xml version="1.0" encoding="UTF-8"?>

<!-- generated on 11/19/20 15:50:55 by Eclipse SUMO GUI Version 1.7.0
<configuration xmlns:xsi="http://www.w3.org/2001/XMLSchema-instance" xsi:noNamespaceSchemaLocation="http://sumo.dlr.de/xsd/sumoConfiguration.xsd">

    <input>
        <net-file value="intersection.net.xml"/>
        <route-files value="routes.rou.xml"/>
        <additional-files value="intersection.add.xml"/>
    </input>

    <output>
        <tripinfo-output value="tripinfo.xml"/>
    </output>

    <traci_server>
        <remote-port value="50564"/>
    </traci_server>

    <gui_only>
        <gui-settings-file value="intersection.settings.xml"/>
    </gui_only>

</configuration>
-->

<detector xmlns:xsi="http://www.w3.org/2001/XMLSchema-instance" xsi:noNamespaceSchemaLocation="http://sumo.dlr.de/xsd/det_e1_file.xsd">
    <interval begin="0.00" end="322.00" id="0" nVehContrib="19" flow="212.42" occupancy="2.53" speed="11.69" harmonicMeanSpeed="11.65" length="5.00" nVehEntered="19"/>
    <interval begin="0.00" end="322.00" id="1" nVehContrib="21" flow="234.78" occupancy="2.71" speed="12.06" harmonicMeanSpeed="12.03" length="5.00" nVehEntered="21"/>
    <interval begin="0.00" end="322.00" id="2" nVehContrib="16" flow="178.88" occupancy="2.08" speed="12.04" harmonicMeanSpeed="11.97" length="5.00" nVehEntered="16"/>
    <interval begin="0.00" end="322.00" id="3" nVehContrib="13" flow="145.34" occupancy="1.70" speed="11.90" harmonicMeanSpeed="11.88" length="5.00" nVehEntered="13"/>
</detector>
