<?xml version="1.0" encoding="UTF-8"?>

<!-- generated on 11/04/20 10:45:17 by Eclipse SUMO GUI Version 1.7.0
<configuration xmlns:xsi="http://www.w3.org/2001/XMLSchema-instance" xsi:noNamespaceSchemaLocation="http://sumo.dlr.de/xsd/sumoConfiguration.xsd">

    <input>
        <net-file value="C:\Users\marco\Desktop\intersection_tls_classic\intersection.net.xml"/>
        <route-files value="C:\Users\marco\Desktop\intersection_tls_classic\routes.rou.xml"/>
        <additional-files value="C:\Users\marco\Desktop\intersection_tls_classic\intersection.add.xml"/>
    </input>

    <gui_only>
        <gui-settings-file value="C:\Users\marco\Desktop\intersection_tls_classic\intersection.settings.xml"/>
    </gui_only>

</configuration>
-->

<detector xmlns:xsi="http://www.w3.org/2001/XMLSchema-instance" xsi:noNamespaceSchemaLocation="http://sumo.dlr.de/xsd/det_e1_file.xsd">
    <interval begin="0.00" end="556.00" id="1" nVehContrib="34" flow="220.14" occupancy="4.63" speed="9.23" harmonicMeanSpeed="6.60" length="5.00" nVehEntered="34"/>
</detector>
